ITEM: TIMESTEP
0
ITEM: NUMBER OF ATOMS
216
ITEM: BOX BOUNDS pp pp pp
0.0000000000000000e+00 1.6869000000000000e+01
0.0000000000000000e+00 1.4609000000000000e+01
0.0000000000000000e+00 4.1478000000000002e+01
ITEM: ATOMS id element xu yu zu fx fy fz q
1 Pt 1.40573 0.811598 35.739 3.42069e-07 -5.60043e-07 -0.00786646 0.00538366
2 Pt 4.21718 0.811598 35.739 -5.62527e-07 -5.59315e-07 -0.00786623 0.00538352
3 Pt 7.02864 0.811598 35.739 5.75464e-07 -5.59359e-07 -0.00786625 0.00538353
4 Pt 9.8401 0.811598 35.739 -5.46375e-07 -5.59467e-07 -0.00786626 0.00538354
5 Pt 12.6516 0.811598 35.739 4.80771e-07 -5.59248e-07 -0.00786628 0.00538354
6 Pt 15.463 0.811598 35.739 -2.62627e-07 -5.59748e-07 -0.00786662 0.00538376
7 Pt 0 3.24639 35.739 -2.3485e-07 3.10936e-07 -0.00786594 0.00538332
8 Pt 2.81146 3.24639 35.739 -1.03423e-08 3.27444e-07 -0.00786691 0.00538397
9 Pt 5.62291 3.24639 35.739 8.13534e-09 3.11432e-07 -0.00786552 0.00538306
10 Pt 8.43437 3.24639 35.739 -2.39871e-08 3.27475e-07 -0.00786689 0.00538396
11 Pt 11.2458 3.24639 35.739 6.60754e-08 3.11414e-07 -0.00786557 0.00538309
12 Pt 14.0573 3.24639 35.739 1.68188e-07 3.26656e-07 -0.0078671 0.00538409
13 Pt 1.40573 5.68118 35.739 3.42051e-07 -3.0701e-07 -0.00786618 0.00538349
14 Pt 4.21718 5.68118 35.739 -5.62495e-07 -3.06299e-07 -0.00786595 0.00538335
15 Pt 7.02864 5.68118 35.739 5.75451e-07 -3.0634e-07 -0.00786597 0.00538336
16 Pt 9.8401 5.68118 35.739 -5.46352e-07 -3.06452e-07 -0.00786598 0.00538336
17 Pt 12.6516 5.68118 35.739 4.80755e-07 -3.06231e-07 -0.007866 0.00538337
18 Pt 15.463 5.68118 35.739 -2.62623e-07 -3.0673e-07 -0.00786634 0.00538358
19 Pt 0 8.11598 35.739 -2.34859e-07 3.32432e-07 -0.00786599 0.00538336
20 Pt 2.81146 8.11598 35.739 -1.03363e-08 3.48943e-07 -0.00786696 0.005384
21 Pt 5.62291 8.11598 35.739 8.12881e-09 3.32926e-07 -0.00786557 0.0053831
22 Pt 8.43437 8.11598 35.739 -2.39874e-08 3.48968e-07 -0.00786694 0.005384
23 Pt 11.2458 8.11598 35.739 6.60625e-08 3.32902e-07 -0.00786562 0.00538313
24 Pt 14.0573 8.11598 35.739 1.68203e-07 3.4815e-07 -0.00786715 0.00538412
25 Pt 1.40573 10.5508 35.739 3.42052e-07 -3.45725e-07 -0.00786623 0.00538351
26 Pt 4.21718 10.5508 35.739 -5.62506e-07 -3.45009e-07 -0.007866 0.00538337
27 Pt 7.02864 10.5508 35.739 5.75457e-07 -3.45054e-07 -0.00786601 0.00538338
28 Pt 9.8401 10.5508 35.739 -5.46357e-07 -3.45159e-07 -0.00786602 0.00538339
29 Pt 12.6516 10.5508 35.739 4.80766e-07 -3.4494e-07 -0.00786604 0.00538339
30 Pt 15.463 10.5508 35.739 -2.62623e-07 -3.45433e-07 -0.00786638 0.00538361
31 Pt 0 12.9856 35.739 -2.34867e-07 5.43585e-07 -0.00786624 0.00538351
32 Pt 2.81146 12.9856 35.739 -1.03385e-08 5.60129e-07 -0.00786721 0.00538416
33 Pt 5.62291 12.9856 35.739 8.12857e-09 5.44078e-07 -0.00786582 0.00538325
34 Pt 8.43437 12.9856 35.739 -2.39886e-08 5.60152e-07 -0.00786719 0.00538415
35 Pt 11.2458 12.9856 35.739 6.6073e-08 5.44051e-07 -0.00786587 0.00538328
36 Pt 14.0573 12.9856 35.739 1.68211e-07 5.59344e-07 -0.0078674 0.00538428
37 Pt 0 1.62319 38.0345 1.34391e-09 2.33192e-09 -2.22926e-05 -0.000309399
38 Pt 2.81146 1.62319 38.0345 2.56945e-11 2.33234e-09 -2.22574e-05 -0.000309049
39 Pt 5.62291 1.62319 38.0345 -1.64425e-11 4.99342e-10 -2.23039e-05 -0.000309459
40 Pt 8.43437 1.62319 38.0345 2.89243e-11 2.47499e-09 -2.22568e-05 -0.000309045
41 Pt 11.2458 1.62319 38.0345 -4.10465e-10 8.21085e-10 -2.23023e-05 -0.000309451
42 Pt 14.0573 1.62319 38.0345 -2.63088e-10 1.24152e-09 -2.22579e-05 -0.000309053
43 Pt 1.40573 4.05799 38.0345 -1.4183e-08 -1.64548e-09 -2.22554e-05 -0.00030903
44 Pt 4.21718 4.05799 38.0345 1.44338e-08 -1.10782e-09 -2.22569e-05 -0.000309036
45 Pt 7.02864 4.05799 38.0345 -1.45271e-08 -1.04896e-09 -2.22564e-05 -0.000309034
46 Pt 9.8401 4.05799 38.0345 1.46028e-08 -1.40779e-09 -2.22574e-05 -0.000309039
47 Pt 12.6516 4.05799 38.0345 -1.40003e-08 -6.65519e-10 -2.22553e-05 -0.000309028
48 Pt 15.463 4.05799 38.0345 1.2964e-08 5.95149e-10 -2.22464e-05 -0.000308981
49 Pt 0 6.49278 38.0345 1.34384e-09 1.79767e-09 -2.22928e-05 -0.000309397
50 Pt 2.81146 6.49278 38.0345 2.52455e-11 1.79878e-09 -2.22576e-05 -0.000309047
51 Pt 5.62291 6.49278 38.0345 -1.60101e-11 -3.48799e-11 -2.23041e-05 -0.000309457
52 Pt 8.43437 6.49278 38.0345 2.85432e-11 1.94138e-09 -2.2257e-05 -0.000309043
53 Pt 11.2458 6.49278 38.0345 -4.08749e-10 2.85885e-10 -2.23026e-05 -0.000309449
54 Pt 14.0573 6.49278 38.0345 -2.63053e-10 7.07504e-10 -2.22581e-05 -0.000309051
55 Pt 1.40573 8.92757 38.0345 -1.41829e-08 -1.75178e-09 -2.22537e-05 -0.00030902
56 Pt 4.21718 8.92757 38.0345 1.44334e-08 -1.21401e-09 -2.22552e-05 -0.000309027
57 Pt 7.02864 8.92757 38.0345 -1.45263e-08 -1.15527e-09 -2.22547e-05 -0.000309024
58 Pt 9.8401 8.92757 38.0345 1.46025e-08 -1.5145e-09 -2.22557e-05 -0.000309029
59 Pt 12.6516 8.92757 38.0345 -1.4e-08 -7.7211e-10 -2.22536e-05 -0.000309018
60 Pt 15.463 8.92757 38.0345 1.29634e-08 4.8834e-10 -2.22448e-05 -0.000308971
61 Pt 0 11.3624 38.0345 1.34394e-09 1.91793e-09 -2.2293e-05 -0.0003094
62 Pt 2.81146 11.3624 38.0345 2.53039e-11 1.91894e-09 -2.22578e-05 -0.00030905
63 Pt 5.62291 11.3624 38.0345 -1.60601e-11 8.54326e-11 -2.23044e-05 -0.000309461
64 Pt 8.43437 11.3624 38.0345 2.8583e-11 2.06157e-09 -2.22573e-05 -0.000309047
65 Pt 11.2458 11.3624 38.0345 -4.08954e-10 4.06614e-10 -2.23028e-05 -0.000309453
66 Pt 14.0573 11.3624 38.0345 -2.63039e-10 8.28438e-10 -2.22583e-05 -0.000309054
67 Pt 1.40573 13.7972 38.0345 -1.41804e-08 -3.37824e-09 -2.22447e-05 -0.000308971
68 Pt 4.21718 13.7972 38.0345 1.44314e-08 -2.84056e-09 -2.22462e-05 -0.000308977
69 Pt 7.02864 13.7972 38.0345 -1.45247e-08 -2.78171e-09 -2.22457e-05 -0.000308974
70 Pt 9.8401 13.7972 38.0345 1.46004e-08 -3.14043e-09 -2.22467e-05 -0.00030898
71 Pt 12.6516 13.7972 38.0345 -1.39978e-08 -2.39811e-09 -2.22446e-05 -0.000308969
72 Pt 15.463 13.7972 38.0345 1.29616e-08 -1.13756e-09 -2.22358e-05 -0.000308921
73 Pt 0 0 40.3301 7.90851e-12 -2.60347e-11 -4.40951e-08 1.40485e-05
74 Pt 2.81146 0 40.3301 1.68256e-12 -7.12852e-11 -4.44243e-08 1.40951e-05
75 Pt 5.62291 0 40.3301 -3.47037e-13 -2.86031e-11 -4.41414e-08 1.40554e-05
76 Pt 8.43437 0 40.3301 5.27658e-13 -7.14023e-11 -4.44268e-08 1.40955e-05
77 Pt 11.2458 0 40.3301 -2.33841e-12 -2.83653e-11 -4.4136e-08 1.40546e-05
78 Pt 14.0573 0 40.3301 -5.6595e-12 -7.15327e-11 -4.44098e-08 1.40929e-05
79 Pt 1.40573 2.43479 40.3301 5.51109e-11 5.45559e-11 -4.42554e-08 1.40703e-05
80 Pt 4.21718 2.43479 40.3301 -4.78403e-11 5.39889e-11 -4.42771e-08 1.40736e-05
81 Pt 7.02864 2.43479 40.3301 4.75808e-11 5.41496e-11 -4.42756e-08 1.40734e-05
82 Pt 9.8401 2.43479 40.3301 -4.82459e-11 5.39631e-11 -4.42758e-08 1.40734e-05
83 Pt 12.6516 2.43479 40.3301 4.94484e-11 5.47508e-11 -4.427e-08 1.40725e-05
84 Pt 15.463 2.43479 40.3301 -5.78454e-11 5.65163e-11 -4.42343e-08 1.40673e-05
85 Pt 0 4.86959 40.3301 7.91654e-12 -2.67781e-11 -4.41356e-08 1.40546e-05
86 Pt 2.81146 4.86959 40.3301 1.68974e-12 -7.20447e-11 -4.4465e-08 1.41011e-05
87 Pt 5.62291 4.86959 40.3301 -3.48278e-13 -2.93502e-11 -4.41819e-08 1.40614e-05
88 Pt 8.43437 4.86959 40.3301 5.28931e-13 -7.21668e-11 -4.44675e-08 1.41015e-05
89 Pt 11.2458 4.86959 40.3301 -2.33153e-12 -2.91045e-11 -4.41765e-08 1.40606e-05
90 Pt 14.0573 4.86959 40.3301 -5.66066e-12 -7.22923e-11 -4.44505e-08 1.40989e-05
91 Pt 1.40573 7.30438 40.3301 5.5114e-11 5.02342e-11 -4.42616e-08 1.40714e-05
92 Pt 4.21718 7.30438 40.3301 -4.78428e-11 4.96682e-11 -4.42833e-08 1.40747e-05
93 Pt 7.02864 7.30438 40.3301 4.75835e-11 4.98268e-11 -4.42818e-08 1.40744e-05
94 Pt 9.8401 7.30438 40.3301 -4.82493e-11 4.96425e-11 -4.42819e-08 1.40744e-05
95 Pt 12.6516 7.30438 40.3301 4.94486e-11 5.04336e-11 -4.42761e-08 1.40736e-05
96 Pt 15.463 7.30438 40.3301 -5.78452e-11 5.2199e-11 -4.42404e-08 1.40683e-05
97 Pt 0 9.73917 40.3301 7.91781e-12 -2.68601e-11 -4.41284e-08 1.40535e-05
98 Pt 2.81146 9.73917 40.3301 1.68808e-12 -7.21234e-11 -4.44577e-08 1.41001e-05
99 Pt 5.62291 9.73917 40.3301 -3.47069e-13 -2.94328e-11 -4.41747e-08 1.40603e-05
100 Pt 8.43437 9.73917 40.3301 5.27072e-13 -7.22432e-11 -4.44603e-08 1.41005e-05
101 Pt 11.2458 9.73917 40.3301 -2.32904e-12 -2.91872e-11 -4.41693e-08 1.40595e-05
102 Pt 14.0573 9.73917 40.3301 -5.66206e-12 -7.23676e-11 -4.44432e-08 1.40979e-05
103 Pt 1.40573 12.174 40.3301 5.51099e-11 4.60195e-11 -4.42471e-08 1.40694e-05
104 Pt 4.21718 12.174 40.3301 -4.78399e-11 4.54497e-11 -4.42688e-08 1.40727e-05
105 Pt 7.02864 12.174 40.3301 4.75812e-11 4.56105e-11 -4.42673e-08 1.40725e-05
106 Pt 9.8401 12.174 40.3301 -4.82463e-11 4.54246e-11 -4.42674e-08 1.40724e-05
107 Pt 12.6516 12.174 40.3301 4.9446e-11 4.62134e-11 -4.42616e-08 1.40716e-05
108 Pt 15.463 12.174 40.3301 -5.7842e-11 4.79819e-11 -4.42259e-08 1.40663e-05
109 Pt 1.40573 0.811598 1.1476 5.50723e-11 5.8907e-11 4.41569e-08 -1.40563e-05
110 Pt 4.21718 0.811598 1.1476 -4.78053e-11 5.94992e-11 4.41786e-08 -1.40595e-05
111 Pt 7.02864 0.811598 1.1476 4.7547e-11 5.93379e-11 4.41771e-08 -1.40593e-05
112 Pt 9.8401 0.811598 1.1476 -4.82109e-11 5.95258e-11 4.41773e-08 -1.40593e-05
113 Pt 12.6516 0.811598 1.1476 4.94208e-11 5.873e-11 4.41715e-08 -1.40585e-05
114 Pt 15.463 0.811598 1.1476 -5.78013e-11 5.69244e-11 4.41358e-08 -1.40532e-05
115 Pt 0 3.24639 1.1476 7.92209e-12 -7.13157e-11 4.42112e-08 -1.40649e-05
116 Pt 2.81146 3.24639 1.1476 1.68711e-12 -2.63071e-11 4.45408e-08 -1.41115e-05
117 Pt 5.62291 3.24639 1.1476 -3.49112e-13 -6.87906e-11 4.42576e-08 -1.40717e-05
118 Pt 8.43437 3.24639 1.1476 5.28728e-13 -2.61941e-11 4.45434e-08 -1.41119e-05
119 Pt 11.2458 3.24639 1.1476 -2.33624e-12 -6.90286e-11 4.42521e-08 -1.40709e-05
120 Pt 14.0573 3.24639 1.1476 -5.66642e-12 -2.60521e-11 4.45263e-08 -1.41093e-05
121 Pt 1.40573 5.68118 1.1476 5.509e-11 4.70343e-11 4.41996e-08 -1.40622e-05
122 Pt 4.21718 5.68118 1.1476 -4.78289e-11 4.76196e-11 4.42213e-08 -1.40655e-05
123 Pt 7.02864 5.68118 1.1476 4.75636e-11 4.74627e-11 4.42198e-08 -1.40652e-05
124 Pt 9.8401 5.68118 1.1476 -4.8231e-11 4.76474e-11 4.422e-08 -1.40652e-05
125 Pt 12.6516 5.68118 1.1476 4.94236e-11 4.68456e-11 4.42142e-08 -1.40644e-05
126 Pt 15.463 5.68118 1.1476 -5.7818e-11 4.50478e-11 4.41785e-08 -1.40591e-05
127 Pt 0 8.11598 1.1476 7.91834e-12 -7.16272e-11 4.42109e-08 -1.40649e-05
128 Pt 2.81146 8.11598 1.1476 1.68875e-12 -2.66189e-11 4.45406e-08 -1.41114e-05
129 Pt 5.62291 8.11598 1.1476 -3.49606e-13 -6.91048e-11 4.42573e-08 -1.40717e-05
130 Pt 8.43437 8.11598 1.1476 5.29851e-13 -2.65061e-11 4.45431e-08 -1.41118e-05
131 Pt 11.2458 8.11598 1.1476 -2.34e-12 -6.93368e-11 4.42519e-08 -1.40709e-05
132 Pt 14.0573 8.11598 1.1476 -5.66613e-12 -2.63569e-11 4.45261e-08 -1.41092e-05
133 Pt 1.40573 10.5508 1.1476 5.50834e-11 4.6367e-11 4.4188e-08 -1.40605e-05
134 Pt 4.21718 10.5508 1.1476 -4.78231e-11 4.69536e-11 4.42098e-08 -1.40638e-05
135 Pt 7.02864 10.5508 1.1476 4.75597e-11 4.67949e-11 4.42082e-08 -1.40635e-05
136 Pt 9.8401 10.5508 1.1476 -4.82267e-11 4.69812e-11 4.42084e-08 -1.40635e-05
137 Pt 12.6516 10.5508 1.1476 4.94197e-11 4.61811e-11 4.42026e-08 -1.40627e-05
138 Pt 15.463 10.5508 1.1476 -5.78137e-11 4.43824e-11 4.41669e-08 -1.40574e-05
139 Pt 0 12.9856 1.1476 7.91867e-12 -7.7524e-11 4.41915e-08 -1.40615e-05
140 Pt 2.81146 12.9856 1.1476 1.68719e-12 -3.25427e-11 4.45211e-08 -1.41081e-05
141 Pt 5.62291 12.9856 1.1476 -3.48926e-13 -7.50043e-11 4.42379e-08 -1.40683e-05
142 Pt 8.43437 12.9856 1.1476 5.29365e-13 -3.24302e-11 4.45236e-08 -1.41085e-05
143 Pt 11.2458 12.9856 1.1476 -2.33653e-12 -7.52373e-11 4.42324e-08 -1.40676e-05
144 Pt 14.0573 12.9856 1.1476 -5.6643e-12 -3.22846e-11 4.45066e-08 -1.41059e-05
145 Pt 0 1.62319 3.4432 1.34338e-09 -9.34189e-09 2.22787e-05 0.000309272
146 Pt 2.81146 1.62319 3.4432 2.52733e-11 -9.33239e-09 2.22435e-05 0.000308922
147 Pt 5.62291 1.62319 3.4432 -1.60084e-11 -7.51198e-09 2.229e-05 0.000309332
148 Pt 8.43437 1.62319 3.4432 2.85852e-11 -9.47496e-09 2.2243e-05 0.000308918
149 Pt 11.2458 1.62319 3.4432 -4.0895e-10 -7.83292e-09 2.22885e-05 0.000309324
150 Pt 14.0573 1.62319 3.4432 -2.63009e-10 -8.24275e-09 2.2244e-05 0.000308926
151 Pt 1.40573 4.05799 3.4432 -1.41911e-08 8.19158e-09 2.22709e-05 0.00030917
152 Pt 4.21718 4.05799 3.4432 1.44419e-08 7.65389e-09 2.22724e-05 0.000309177
153 Pt 7.02864 4.05799 3.4432 -1.45353e-08 7.59499e-09 2.22719e-05 0.000309174
154 Pt 9.8401 4.05799 3.4432 1.4611e-08 7.95416e-09 2.22728e-05 0.000309179
155 Pt 12.6516 4.05799 3.4432 -1.40082e-08 7.21106e-09 2.22708e-05 0.000309168
156 Pt 15.463 4.05799 3.4432 1.29717e-08 5.94873e-09 2.22619e-05 0.000309121
157 Pt 0 6.49278 3.4432 1.34335e-09 -8.45078e-09 2.22777e-05 0.00030926
158 Pt 2.81146 6.49278 3.4432 2.52186e-11 -8.44229e-09 2.22426e-05 0.00030891
159 Pt 5.62291 6.49278 3.4432 -1.59562e-11 -6.62068e-09 2.22891e-05 0.00030932
160 Pt 8.43437 6.49278 3.4432 2.85369e-11 -8.58483e-09 2.2242e-05 0.000308906
161 Pt 11.2458 6.49278 3.4432 -4.0876e-10 -6.94148e-09 2.22875e-05 0.000309312
162 Pt 14.0573 6.49278 3.4432 -2.62989e-10 -7.35244e-09 2.22431e-05 0.000308914
163 Pt 1.40573 8.92757 3.4432 -1.41914e-08 8.11266e-09 2.22714e-05 0.000309174
164 Pt 4.21718 8.92757 3.4432 1.44422e-08 7.57495e-09 2.22729e-05 0.000309181
165 Pt 7.02864 8.92757 3.4432 -1.45356e-08 7.51604e-09 2.22724e-05 0.000309178
166 Pt 9.8401 8.92757 3.4432 1.46112e-08 7.87554e-09 2.22734e-05 0.000309183
167 Pt 12.6516 8.92757 3.4432 -1.40089e-08 7.13208e-09 2.22713e-05 0.000309172
168 Pt 15.463 8.92757 3.4432 1.29723e-08 5.86973e-09 2.22625e-05 0.000309125
169 Pt 0 11.3624 3.4432 1.3434e-09 -9.3302e-09 2.22744e-05 0.000309239
170 Pt 2.81146 11.3624 3.4432 2.52907e-11 -9.32042e-09 2.22392e-05 0.000308889
171 Pt 5.62291 11.3624 3.4432 -1.60058e-11 -7.50016e-09 2.22857e-05 0.000309299
172 Pt 8.43437 11.3624 3.4432 2.8543e-11 -9.463e-09 2.22387e-05 0.000308885
173 Pt 11.2458 11.3624 3.4432 -4.08666e-10 -7.8205e-09 2.22842e-05 0.000309291
174 Pt 14.0573 11.3624 3.4432 -2.63035e-10 -8.22994e-09 2.22397e-05 0.000308893
175 Pt 1.40573 13.7972 3.4432 -1.41889e-08 1.04203e-08 2.22608e-05 0.000309115
176 Pt 4.21718 13.7972 3.4432 1.44395e-08 9.88274e-09 2.22623e-05 0.000309122
177 Pt 7.02864 13.7972 3.4432 -1.45334e-08 9.82383e-09 2.22618e-05 0.000309119
178 Pt 9.8401 13.7972 3.4432 1.46094e-08 1.01835e-08 2.22628e-05 0.000309124
179 Pt 12.6516 13.7972 3.4432 -1.40063e-08 9.44042e-09 2.22607e-05 0.000309114
180 Pt 15.463 13.7972 3.4432 1.29694e-08 8.17764e-09 2.22519e-05 0.000309066
181 Pt 0 0 5.7387 -2.34858e-07 -2.56245e-07 0.00786584 -0.00538324
182 Pt 2.81146 0 5.7387 -1.03451e-08 -2.72837e-07 0.00786682 -0.00538389
183 Pt 5.62291 0 5.7387 8.13525e-09 -2.56739e-07 0.00786543 -0.00538299
184 Pt 8.43437 0 5.7387 -2.39865e-08 -2.72855e-07 0.0078668 -0.00538388
185 Pt 11.2458 0 5.7387 6.60497e-08 -2.56665e-07 0.00786547 -0.00538301
186 Pt 14.0573 0 5.7387 1.68192e-07 -2.72039e-07 0.007867 -0.00538401
187 Pt 1.40573 2.43479 5.7387 3.42e-07 3.28018e-08 0.00786657 -0.00538375
188 Pt 4.21718 2.43479 5.7387 -5.6246e-07 3.20929e-08 0.00786634 -0.00538361
189 Pt 7.02864 2.43479 5.7387 5.75419e-07 3.21434e-08 0.00786635 -0.00538362
190 Pt 9.8401 2.43479 5.7387 -5.46317e-07 3.22394e-08 0.00786636 -0.00538362
191 Pt 12.6516 2.43479 5.7387 4.80716e-07 3.20283e-08 0.00786638 -0.00538363
192 Pt 15.463 2.43479 5.7387 -2.62569e-07 3.25081e-08 0.00786672 -0.00538384
193 Pt 0 4.86959 5.7387 -2.3484e-07 -1.81847e-08 0.00786556 -0.00538307
194 Pt 2.81146 4.86959 5.7387 -1.03429e-08 -3.47405e-08 0.00786653 -0.00538372
195 Pt 5.62291 4.86959 5.7387 8.13571e-09 -1.86806e-08 0.00786515 -0.00538282
196 Pt 8.43437 4.86959 5.7387 -2.39863e-08 -3.47648e-08 0.00786652 -0.00538371
197 Pt 11.2458 4.86959 5.7387 6.60653e-08 -1.86587e-08 0.00786519 -0.00538284
198 Pt 14.0573 4.86959 5.7387 1.68181e-07 -3.39377e-08 0.00786672 -0.00538384
199 Pt 1.40573 7.30438 5.7387 3.41999e-07 1.49871e-08 0.00786655 -0.00538374
200 Pt 4.21718 7.30438 5.7387 -5.62451e-07 1.42817e-08 0.00786632 -0.0053836
201 Pt 7.02864 7.30438 5.7387 5.75416e-07 1.43252e-08 0.00786633 -0.00538361
202 Pt 9.8401 7.30438 5.7387 -5.46314e-07 1.44282e-08 0.00786635 -0.00538362
203 Pt 12.6516 7.30438 5.7387 4.80707e-07 1.42142e-08 0.00786636 -0.00538362
204 Pt 15.463 7.30438 5.7387 -2.62568e-07 1.4702e-08 0.0078667 -0.00538384
205 Pt 0 9.73917 5.7387 -2.34837e-07 3.60418e-08 0.00786561 -0.0053831
206 Pt 2.81146 9.73917 5.7387 -1.03426e-08 1.94842e-08 0.00786658 -0.00538374
207 Pt 5.62291 9.73917 5.7387 8.13496e-09 3.55341e-08 0.00786519 -0.00538284
208 Pt 8.43437 9.73917 5.7387 -2.39866e-08 1.94533e-08 0.00786656 -0.00538374
209 Pt 11.2458 9.73917 5.7387 6.60729e-08 3.55545e-08 0.00786524 -0.00538287
210 Pt 14.0573 9.73917 5.7387 1.68178e-07 2.02882e-08 0.00786677 -0.00538386
211 Pt 1.40573 12.174 5.7387 3.42019e-07 2.17587e-07 0.0078669 -0.00538396
212 Pt 4.21718 12.174 5.7387 -5.62497e-07 2.16871e-07 0.00786667 -0.00538382
213 Pt 7.02864 12.174 5.7387 5.75436e-07 2.16916e-07 0.00786668 -0.00538383
214 Pt 9.8401 12.174 5.7387 -5.46344e-07 2.17022e-07 0.0078667 -0.00538384
215 Pt 12.6516 12.174 5.7387 4.80766e-07 2.16766e-07 0.00786671 -0.00538384
216 Pt 15.463 12.174 5.7387 -2.62572e-07 2.17297e-07 0.00786705 -0.00538406