ITEM: TIMESTEP
0
ITEM: NUMBER OF ATOMS
218
ITEM: BOX BOUNDS pp pp pp
0.0000000000000000e+00 1.6869000000000000e+01
0.0000000000000000e+00 1.4609000000000000e+01
0.0000000000000000e+00 4.1478000000000002e+01
ITEM: ATOMS id element xu yu zu fx fy fz q
1 Pt 1.40573 0.811598 35.739 -0.000574083 -0.00061209 -19.8705 0.270591
2 Pt 4.21718 0.811598 35.739 5.76716e-05 -0.000610391 -19.8701 0.270585
3 Pt 7.02864 0.811598 35.739 -4.77899e-06 -0.000610502 -19.8702 0.270586
4 Pt 9.8401 0.811598 35.739 5.80393e-05 -0.000610778 -19.8701 0.270586
5 Pt 12.6516 0.811598 35.739 -0.000264403 -0.000610101 -19.87 0.270585
6 Pt 15.463 0.811598 35.739 0.000795372 -0.000611459 -19.8708 0.270595
7 Pt 0 3.24639 35.739 -0.000580605 1.14986e-05 -19.8702 0.270587
8 Pt 2.81146 3.24639 35.739 -3.31564e-06 1.27815e-05 -19.8693 0.270575
9 Pt 5.62291 3.24639 35.739 3.35929e-05 1.32659e-05 -19.8695 0.270577
10 Pt 8.43437 3.24639 35.739 -7.38534e-05 1.33844e-05 -19.8694 0.270576
11 Pt 11.2458 3.24639 35.739 0.000144829 1.26675e-05 -19.8694 0.270577
12 Pt 14.0573 3.24639 35.739 0.000411535 1.07825e-05 -19.8696 0.27058
13 Pt 1.40573 5.68118 35.739 -0.000574012 2.84693e-05 -19.8698 0.270582
14 Pt 4.21718 5.68118 35.739 5.84509e-05 3.09004e-05 -19.8694 0.270577
15 Pt 7.02864 5.68118 35.739 -4.77754e-06 3.03325e-05 -19.8696 0.270578
16 Pt 9.8401 5.68118 35.739 5.72507e-05 3.05201e-05 -19.8695 0.270577
17 Pt 12.6516 5.68118 35.739 -0.000264416 3.04275e-05 -19.8694 0.270576
18 Pt 15.463 5.68118 35.739 0.00079532 2.93475e-05 -19.8701 0.270587
19 Pt 0 8.11598 35.739 -0.000580764 5.73064e-05 -19.8704 0.27059
20 Pt 2.81146 8.11598 35.739 -2.31578e-06 5.87516e-05 -19.8695 0.270577
21 Pt 5.62291 8.11598 35.739 3.30855e-05 5.85585e-05 -19.8697 0.270579
22 Pt 8.43437 8.11598 35.739 -7.33468e-05 5.86763e-05 -19.8696 0.270578
23 Pt 11.2458 8.11598 35.739 0.000143829 5.86391e-05 -19.8696 0.270579
24 Pt 14.0573 8.11598 35.739 0.000411695 5.65811e-05 -19.8698 0.270582
25 Pt 1.40573 10.5508 35.739 -0.000573773 -7.87201e-05 -19.8699 0.270583
26 Pt 4.21718 10.5508 35.739 5.79124e-05 -7.76112e-05 -19.8695 0.270578
27 Pt 7.02864 10.5508 35.739 -4.77766e-06 -7.79085e-05 -19.8697 0.270579
28 Pt 9.8401 10.5508 35.739 5.77903e-05 -7.79925e-05 -19.8696 0.270578
29 Pt 12.6516 10.5508 35.739 -0.000264665 -7.67573e-05 -19.8694 0.270577
30 Pt 15.463 10.5508 35.739 0.00079533 -7.78382e-05 -19.8702 0.270588
31 Pt 0 12.9856 35.739 -0.000580934 0.000588799 -19.8709 0.270597
32 Pt 2.81146 12.9856 35.739 -3.10202e-06 0.00058999 -19.87 0.270585
33 Pt 5.62291 12.9856 35.739 3.32256e-05 0.00059007 -19.8702 0.270586
34 Pt 8.43437 12.9856 35.739 -7.34888e-05 0.000590187 -19.8702 0.270586
35 Pt 11.2458 12.9856 35.739 0.000144619 0.000589871 -19.8702 0.270586
36 Pt 14.0573 12.9856 35.739 0.000411864 0.000588098 -19.8704 0.27059
37 Pt 0 1.62319 38.0345 3.46769e-06 5.91474e-06 -0.0572782 -0.0155478
38 Pt 2.81146 1.62319 38.0345 2.81291e-07 1.14686e-06 -0.0573092 -0.0155512
39 Pt 5.62291 1.62319 38.0345 -1.07899e-07 1.26496e-06 -0.0573078 -0.015551
40 Pt 8.43437 1.62319 38.0345 1.42383e-07 1.36505e-06 -0.0573082 -0.015551
41 Pt 11.2458 1.62319 38.0345 -1.26688e-06 2.21957e-06 -0.0573035 -0.0155506
42 Pt 14.0573 1.62319 38.0345 -7.25698e-07 -1.73484e-06 -0.0573101 -0.0155513
43 Pt 1.40573 4.05799 38.0345 1.44676e-06 -1.36015e-06 -0.0573067 -0.015551
44 Pt 4.21718 4.05799 38.0345 -6.61519e-07 -5.50999e-07 -0.0573113 -0.0155512
45 Pt 7.02864 4.05799 38.0345 3.80276e-08 8.90522e-08 -0.0573098 -0.0155512
46 Pt 9.8401 4.05799 38.0345 5.45342e-07 -1.31017e-06 -0.0573124 -0.0155513
47 Pt 12.6516 4.05799 38.0345 8.22064e-07 1.11984e-06 -0.0573064 -0.0155509
48 Pt 15.463 4.05799 38.0345 -3.98367e-06 4.07595e-06 -0.0572838 -0.0155483
49 Pt 0 6.49278 38.0345 3.59483e-06 4.53639e-06 -0.0572789 -0.0155478
50 Pt 2.81146 6.49278 38.0345 -3.19304e-07 -6.24158e-07 -0.0573101 -0.015551
51 Pt 5.62291 6.49278 38.0345 5.43823e-07 2.34328e-07 -0.0573085 -0.0155509
52 Pt 8.43437 6.49278 38.0345 -5.09321e-07 3.34398e-07 -0.0573089 -0.015551
53 Pt 11.2458 6.49278 38.0345 -6.64196e-07 4.47515e-07 -0.0573044 -0.0155504
54 Pt 14.0573 6.49278 38.0345 -8.52854e-07 -3.11252e-06 -0.0573108 -0.0155513
55 Pt 1.40573 8.92757 38.0345 9.66458e-07 -2.02758e-06 -0.0573026 -0.0155504
56 Pt 4.21718 8.92757 38.0345 -2.91354e-08 -6.50956e-07 -0.0573068 -0.0155509
57 Pt 7.02864 8.92757 38.0345 3.8048e-08 -1.04949e-06 -0.0573058 -0.0155507
58 Pt 9.8401 8.92757 38.0345 -8.70557e-08 -1.41016e-06 -0.0573079 -0.015551
59 Pt 12.6516 8.92757 38.0345 1.30232e-06 4.52334e-07 -0.0573023 -0.0155503
60 Pt 15.463 8.92757 38.0345 -3.98366e-06 3.72419e-06 -0.0572797 -0.0155479
61 Pt 0 11.3624 38.0345 3.41671e-06 4.78488e-06 -0.0572795 -0.0155479
62 Pt 2.81146 11.3624 38.0345 2.50454e-07 -3.0484e-08 -0.0573105 -0.0155512
63 Pt 5.62291 11.3624 38.0345 -3.79044e-08 7.40134e-07 -0.0573093 -0.015551
64 Pt 8.43437 11.3624 38.0345 7.23924e-08 8.4021e-07 -0.0573096 -0.015551
65 Pt 11.2458 11.3624 38.0345 -1.23393e-06 1.04121e-06 -0.0573047 -0.0155506
66 Pt 14.0573 11.3624 38.0345 -6.74658e-07 -2.86392e-06 -0.0573114 -0.0155513
67 Pt 1.40573 13.7972 38.0345 1.00948e-06 -6.05325e-06 -0.0572795 -0.0155478
68 Pt 4.21718 13.7972 38.0345 -9.80102e-08 -4.79134e-06 -0.0572838 -0.0155483
69 Pt 7.02864 13.7972 38.0345 3.80189e-08 -5.033e-06 -0.0572826 -0.0155483
70 Pt 9.8401 13.7972 38.0345 -1.80818e-08 -5.55025e-06 -0.0572849 -0.0155484
71 Pt 12.6516 13.7972 38.0345 1.25943e-06 -3.5733e-06 -0.0572791 -0.0155477
72 Pt 15.463 13.7972 38.0345 -3.98337e-06 -3.8204e-07 -0.0572565 -0.0155453
73 Pt 0 0 40.3301 1.71768e-08 4.42706e-09 -0.000109324 0.000719059
74 Pt 2.81146 0 40.3301 1.62958e-08 3.21184e-09 -0.000109417 0.000719561
75 Pt 5.62291 0 40.3301 1.52229e-08 -2.55863e-08 -0.000109385 0.000720216
76 Pt 8.43437 0 40.3301 -1.48147e-08 -2.54277e-08 -0.000109386 0.00072022
77 Pt 11.2458 0 40.3301 -1.78544e-08 3.35884e-09 -0.000109408 0.000719539
78 Pt 14.0573 0 40.3301 -1.14391e-08 -2.29571e-09 -0.000109399 0.000719275
79 Pt 1.40573 2.43479 40.3301 8.06363e-08 4.13202e-08 -0.000109423 0.000719963
80 Pt 4.21718 2.43479 40.3301 9.79039e-08 2.08472e-07 -0.000109481 0.000721656
81 Pt 7.02864 2.43479 40.3301 2.2844e-10 -2.79792e-08 -0.000109488 0.000720782
82 Pt 9.8401 2.43479 40.3301 -1.00712e-07 2.08419e-07 -0.000109478 0.000721644
83 Pt 12.6516 2.43479 40.3301 -5.61985e-08 4.17603e-08 -0.000109459 0.000720074
84 Pt 15.463 2.43479 40.3301 -2.64534e-08 1.07907e-08 -0.000109411 0.000719283
85 Pt 0 4.86959 40.3301 8.03975e-08 4.28221e-08 -0.000109378 0.000719845
86 Pt 2.81146 4.86959 40.3301 7.83914e-07 4.50987e-07 -0.00010932 0.00072668
87 Pt 5.62291 4.86959 40.3301 -7.98793e-07 4.63445e-08 -0.000109718 0.000721623
88 Pt 8.43437 4.86959 40.3301 7.99207e-07 4.65053e-08 -0.00010972 0.000721627
89 Pt 11.2458 4.86959 40.3301 -7.85466e-07 4.51127e-07 -0.000109311 0.000726658
90 Pt 14.0573 4.86959 40.3301 -7.46648e-08 3.61025e-08 -0.000109453 0.000720061
91 Pt 1.40573 7.30438 40.3301 2.40559e-07 -1.14995e-08 -0.000109443 0.00072159
92 Pt 4.21718 7.30438 40.3301 -3.61919e-07 -7.14341e-07 -0.000109715 0.000721633
93 Pt 7.02864 7.30438 40.3301 2.29204e-10 -9.99108e-10 -0.000109226 0.000721232
94 Pt 9.8401 7.30438 40.3301 3.59107e-07 -7.14369e-07 -0.000109711 0.000721621
95 Pt 12.6516 7.30438 40.3301 -2.16092e-07 -1.10596e-08 -0.00010948 0.000721701
96 Pt 15.463 7.30438 40.3301 -2.64601e-08 1.48809e-09 -0.000109413 0.000719564
97 Pt 0 9.73917 40.3301 6.657e-08 5.07964e-09 -0.000109399 0.000719679
98 Pt 2.81146 9.73917 40.3301 -3.36966e-08 2.0997e-08 -0.00010949 0.000720857
99 Pt 5.62291 9.73917 40.3301 4.35312e-07 6.67893e-07 -0.000109699 0.000721585
100 Pt 8.43437 9.73917 40.3301 -4.34903e-07 6.68055e-07 -0.000109701 0.00072159
101 Pt 11.2458 9.73917 40.3301 3.21355e-08 2.11397e-08 -0.000109481 0.000720834
102 Pt 14.0573 9.73917 40.3301 -6.08345e-08 -1.64389e-09 -0.000109474 0.000719894
103 Pt 1.40573 12.174 40.3301 4.14579e-08 -5.25082e-08 -0.000109442 0.000719786
104 Pt 4.21718 12.174 40.3301 1.16858e-07 -1.98532e-07 -0.000109459 0.000721649
105 Pt 7.02864 12.174 40.3301 2.30682e-10 -9.09197e-07 -0.000109279 0.00072659
106 Pt 9.8401 12.174 40.3301 -1.19669e-07 -1.98577e-07 -0.000109456 0.000721637
107 Pt 12.6516 12.174 40.3301 -1.70169e-08 -5.20777e-08 -0.000109478 0.000719897
108 Pt 15.463 12.174 40.3301 -2.64581e-08 -1.10016e-08 -0.000109393 0.000719367
109 Pt 1.40573 0.811598 1.1476 -1.84881e-07 -4.69804e-08 0.000103087 -0.000699911
110 Pt 4.21718 0.811598 1.1476 -7.13353e-09 2.28927e-07 0.000103214 -0.000699468
111 Pt 7.02864 0.811598 1.1476 2.16772e-10 9.06758e-07 0.00010448 -0.000703261
112 Pt 9.8401 0.811598 1.1476 4.47826e-09 2.28957e-07 0.000103211 -0.000699456
113 Pt 12.6516 0.811598 1.1476 2.08157e-07 -4.73852e-08 0.000103121 -0.00070002
114 Pt 15.463 0.811598 1.1476 -2.5238e-08 -3.30904e-08 0.000103468 -0.000701435
115 Pt 0 3.24639 1.1476 -1.04893e-07 -1.4769e-07 0.000103132 -0.000699988
116 Pt 2.81146 3.24639 1.1476 1.36567e-06 1.26468e-06 0.00010836 -0.000713295
117 Pt 5.62291 3.24639 1.1476 2.64847e-06 5.89407e-06 0.000118093 -0.000747786
118 Pt 8.43437 3.24639 1.1476 -2.6481e-06 5.89394e-06 0.000118095 -0.000747791
119 Pt 11.2458 3.24639 1.1476 -1.36704e-06 1.26456e-06 0.000108352 -0.000713273
120 Pt 14.0573 3.24639 1.1476 1.10333e-07 -1.41392e-07 0.000103203 -0.000700199
121 Pt 1.40573 5.68118 1.1476 1.8003e-06 5.6366e-07 0.000108382 -0.000713358
122 Pt 4.21718 5.68118 1.1476 2.79859e-05 1.61881e-05 0.000193946 -0.000925782
123 Pt 7.02864 5.68118 1.1476 2.46207e-10 -9.73855e-06 0.00011805 -0.000776137
124 Pt 9.8401 5.68118 1.1476 -2.7989e-05 1.6188e-05 0.000193941 -0.000925771
125 Pt 12.6516 5.68118 1.1476 -1.777e-06 5.6326e-07 0.000108417 -0.000713466
126 Pt 15.463 5.68118 1.1476 -2.50513e-08 -1.44944e-07 0.000102867 -0.00069896
127 Pt 0 8.11598 1.1476 1.17275e-07 4.4759e-08 0.000103677 -0.000701139
128 Pt 2.81146 8.11598 1.1476 6.35937e-06 -5.94035e-07 0.00011842 -0.00074873
129 Pt 5.62291 8.11598 1.1476 -8.47286e-06 4.88356e-06 0.000118111 -0.000776301
130 Pt 8.43437 8.11598 1.1476 8.4733e-06 4.88341e-06 0.000118113 -0.000776305
131 Pt 11.2458 8.11598 1.1476 -6.36077e-06 -5.94228e-07 0.000118411 -0.000748709
132 Pt 14.0573 8.11598 1.1476 -1.1189e-07 5.11512e-08 0.000103748 -0.00070135
133 Pt 1.40573 10.5508 1.1476 5.83535e-07 -3.36814e-07 0.000105333 -0.000706274
134 Pt 4.21718 10.5508 1.1476 3.65071e-06 -5.24001e-06 0.000118308 -0.000748382
135 Pt 7.02864 10.5508 1.1476 2.83036e-10 -3.23623e-05 0.000193763 -0.000925316
136 Pt 9.8401 10.5508 1.1476 -3.65348e-06 -5.23985e-06 0.000118305 -0.00074837
137 Pt 12.6516 10.5508 1.1476 -5.60194e-07 -3.37241e-07 0.000105368 -0.000706383
138 Pt 15.463 10.5508 1.1476 -2.51987e-08 -2.3753e-08 0.000103484 -0.000701153
139 Pt 0 12.9856 1.1476 -1.42891e-08 8.01266e-09 0.000103553 -0.000701492
140 Pt 2.81146 12.9856 1.1476 -1.43016e-07 -1.35861e-07 0.000103663 -0.000701056
141 Pt 5.62291 12.9856 1.1476 3.2068e-07 -1.86415e-06 0.000108046 -0.000712124
142 Pt 8.43437 12.9856 1.1476 -3.20291e-07 -1.86431e-06 0.000108047 -0.000712128
143 Pt 11.2458 12.9856 1.1476 1.4157e-07 -1.36015e-07 0.000103654 -0.000701035
144 Pt 14.0573 12.9856 1.1476 1.97521e-08 1.44076e-08 0.000103625 -0.000701703
145 Pt 0 1.62319 3.4432 -5.04828e-05 -4.26352e-05 0.0544194 0.0151587
146 Pt 2.81146 1.62319 3.4432 -0.000131688 -5.97525e-05 0.0539502 0.0150893
147 Pt 5.62291 1.62319 3.4432 -0.000107233 0.000152203 0.0538992 0.0150729
148 Pt 8.43437 1.62319 3.4432 0.000107267 0.000152109 0.0538996 0.015073
149 Pt 11.2458 1.62319 3.4432 0.000130755 -6.07629e-05 0.0539448 0.0150887
150 Pt 14.0573 1.62319 3.4432 5.3105e-05 -3.53601e-05 0.0544497 0.0151621
151 Pt 1.40573 4.05799 3.4432 -0.000185203 -0.000111319 0.0539493 0.0150798
152 Pt 4.21718 4.05799 3.4432 0.00087554 -0.000105413 0.0566915 0.0153376
153 Pt 7.02864 4.05799 3.4432 3.83843e-08 0.00342312 0.0612053 0.0160962
154 Pt 9.8401 4.05799 3.4432 -0.000875666 -0.000104694 0.0566926 0.0153378
155 Pt 12.6516 4.05799 3.4432 0.000187353 -0.000113656 0.0539491 0.0150797
156 Pt 15.463 4.05799 3.4432 -3.78974e-06 -7.13168e-05 0.0542715 0.0151382
157 Pt 0 6.49278 3.4432 -0.000100233 -6.72832e-05 0.053953 0.0150902
158 Pt 2.81146 6.49278 3.4432 0.000336071 0.000824534 0.0567397 0.0153439
159 Pt 5.62291 6.49278 3.4432 0.0313774 0.0181237 0.116969 0.0222285
160 Pt 8.43437 6.49278 3.4432 -0.0313774 0.0181236 0.116969 0.0222285
161 Pt 11.2458 6.49278 3.4432 -0.000336959 0.000823505 0.0567342 0.0153433
162 Pt 14.0573 6.49278 3.4432 0.000102839 -6.00701e-05 0.0539832 0.0150936
163 Pt 1.40573 8.92757 3.4432 2.8401e-05 -0.000125857 0.0541548 0.0151076
164 Pt 4.21718 8.92757 3.4432 0.00293809 -0.00170381 0.0612798 0.0161055
165 Pt 7.02864 8.92757 3.4432 5.24615e-08 -0.0362407 0.116951 0.0222268
166 Pt 9.8401 8.92757 3.4432 -0.00293823 -0.00170307 0.0612809 0.0161057
167 Pt 12.6516 8.92757 3.4432 -2.62582e-05 -0.000128195 0.0541545 0.0151075
168 Pt 15.463 8.92757 3.4432 -3.7711e-06 -1.81731e-06 0.0541401 0.0151161
169 Pt 0 11.3624 3.4432 -6.1015e-05 4.09683e-05 0.0542728 0.0151342
170 Pt 2.81146 11.3624 3.4432 0.000103244 3.18625e-05 0.054128 0.0151037
171 Pt 5.62291 11.3624 3.4432 -0.000556452 -0.000728362 0.0566226 0.015328
172 Pt 8.43437 11.3624 3.4432 0.000556484 -0.000728458 0.0566229 0.015328
173 Pt 11.2458 11.3624 3.4432 -0.000104166 3.08476e-05 0.0541226 0.0151031
174 Pt 14.0573 11.3624 3.4432 6.36327e-05 4.82427e-05 0.0543032 0.0151376
175 Pt 1.40573 13.7972 3.4432 -7.59427e-05 4.82407e-05 0.0542814 0.0151373
176 Pt 4.21718 13.7972 3.4432 -7.81577e-05 8.20642e-05 0.0537312 0.0150578
177 Pt 7.02864 13.7972 3.4432 3.58108e-08 0.000138587 0.0535222 0.0150177
178 Pt 9.8401 13.7972 3.4432 7.80476e-05 8.27806e-05 0.0537323 0.0150579
179 Pt 12.6516 13.7972 3.4432 7.80993e-05 4.58828e-05 0.0542811 0.0151372
180 Pt 15.463 13.7972 3.4432 -3.7991e-06 1.47612e-05 0.0545161 0.0151716
181 Pt 0 0 5.7387 -0.00899438 -0.000610383 18.9608 -0.264341
182 Pt 2.81146 0 5.7387 -0.0193253 -0.000621844 18.8255 -0.263403
183 Pt 5.62291 0 5.7387 -0.0132757 -0.000633778 18.6609 -0.262229
184 Pt 8.43437 0 5.7387 0.0132377 -0.000633888 18.6608 -0.262228
185 Pt 11.2458 0 5.7387 0.0194595 -0.000621675 18.8257 -0.263404
186 Pt 14.0573 0 5.7387 0.00883296 -0.000609709 18.9603 -0.264334
187 Pt 1.40573 2.43479 5.7387 -0.0249121 -0.0177661 18.8371 -0.263465
188 Pt 4.21718 2.43479 5.7387 -0.0493408 -0.0713691 18.5435 -0.261161
189 Pt 7.02864 2.43479 5.7387 -4.47538e-06 -0.0588757 18.4152 -0.260241
190 Pt 9.8401 2.43479 5.7387 0.0494497 -0.0713687 18.5436 -0.261162
191 Pt 12.6516 2.43479 5.7387 0.0241148 -0.0177676 18.8366 -0.263459
192 Pt 15.463 2.43479 5.7387 0.000758816 -0.00812755 18.9452 -0.264228
193 Pt 0 4.86959 5.7387 -0.023049 -0.0114343 18.8267 -0.263396
194 Pt 2.81146 4.86959 5.7387 -0.0584419 -0.0325059 18.4706 -0.260655
195 Pt 5.62291 4.86959 5.7387 0.459958 0.815303 19.8825 -0.270968
196 Pt 8.43437 4.86959 5.7387 -0.459995 0.815302 19.8825 -0.270968
197 Pt 11.2458 4.86959 5.7387 0.0585735 -0.0325063 18.4707 -0.260657
198 Pt 14.0573 4.86959 5.7387 0.0228884 -0.0114322 18.8261 -0.263389
199 Pt 1.40573 7.30438 5.7387 -0.0889898 -0.000374388 18.5765 -0.261395
200 Pt 4.21718 7.30438 5.7387 0.934025 -0.00736759 19.8935 -0.271043
201 Pt 7.02864 7.30438 5.7387 -8.75382e-06 -7.3677e-07 84.3308 -0.514332
202 Pt 9.8401 7.30438 5.7387 -0.933916 -0.00736726 19.8936 -0.271043
203 Pt 12.6516 7.30438 5.7387 0.0881981 -0.000376202 18.5761 -0.26139
204 Pt 15.463 7.30438 5.7387 0.000754612 4.46852e-05 18.8367 -0.263482
205 Pt 0 9.73917 5.7387 -0.0230395 0.0116085 18.8268 -0.263398
206 Pt 2.81146 9.73917 5.7387 -0.0602604 0.0336296 18.4693 -0.260622
207 Pt 5.62291 9.73917 5.7387 0.472721 -0.807873 19.8826 -0.270969
208 Pt 8.43437 9.73917 5.7387 -0.472759 -0.807871 19.8826 -0.270969
209 Pt 11.2458 9.73917 5.7387 0.0603921 0.0336302 18.4694 -0.260623
210 Pt 14.0573 9.73917 5.7387 0.0228789 0.0116077 18.8262 -0.263391
211 Pt 1.40573 12.174 5.7387 -0.0249701 0.0182517 18.8379 -0.263477
212 Pt 4.21718 12.174 5.7387 -0.0486648 0.0722637 18.5443 -0.261172
213 Pt 7.02864 12.174 5.7387 -4.47694e-06 0.057289 18.4174 -0.260286
214 Pt 9.8401 12.174 5.7387 0.0487738 0.072264 18.5444 -0.261173
215 Pt 12.6516 12.174 5.7387 0.0241728 0.0182493 18.8374 -0.263471
216 Pt 15.463 12.174 5.7387 0.000758873 0.00866447 18.946 -0.264239
217 K 7.02864 7.30438 7.3387 1.3341e-05 -3.3851e-05 -24.3022 1
218 F 7.02864 7.30438 8.7387 -9.32971e-06 4.64348e-05 -6.45799 -1
