ITEM: TIMESTEP
0
ITEM: NUMBER OF ATOMS
218
ITEM: BOX BOUNDS pp pp pp
0.0000000000000000e+00 1.6869000000000000e+01
0.0000000000000000e+00 1.4609000000000000e+01
0.0000000000000000e+00 4.1478000000000002e+01
ITEM: ATOMS id element xu yu zu fx fy fz q
1 Pt 1.40573 0.811598 35.739 0.00116442 -0.00029861 -19.8499 0.270473
2 Pt 4.21718 0.811598 35.739 0.00184433 -0.000125455 -19.866 0.27058
3 Pt 7.02864 0.811598 35.739 -4.65651e-06 -3.39569e-05 -19.8745 0.270639
4 Pt 9.8401 0.811598 35.739 -0.00172893 -0.000125837 -19.866 0.270581
5 Pt 12.6516 0.811598 35.739 -0.00200196 -0.000296617 -19.8494 0.270467
6 Pt 15.463 0.811598 35.739 0.000794144 -0.000377891 -19.8421 0.270422
7 Pt 0 3.24639 35.739 0.000570707 0.00119901 -19.8491 0.270466
8 Pt 2.81146 3.24639 35.739 0.00237273 0.00162399 -19.8645 0.270566
9 Pt 5.62291 3.24639 35.739 0.00125951 0.00208361 -19.8814 0.270682
10 Pt 8.43437 3.24639 35.739 -0.00129966 0.00208376 -19.8814 0.270682
11 Pt 11.2458 3.24639 35.739 -0.00223105 0.00162397 -19.8646 0.270568
12 Pt 14.0573 3.24639 35.739 -0.000739694 0.00119819 -19.8485 0.270459
13 Pt 1.40573 5.68118 35.739 0.00180107 0.000667775 -19.8633 0.270562
14 Pt 4.21718 5.68118 35.739 0.00254405 0.00101222 -19.8853 0.27071
15 Pt 7.02864 5.68118 35.739 -4.57337e-06 0.00119654 -19.897 0.27079
16 Pt 9.8401 5.68118 35.739 -0.00242853 0.00101181 -19.8854 0.270711
17 Pt 12.6516 5.68118 35.739 -0.00263914 0.000669708 -19.8628 0.270556
18 Pt 15.463 5.68118 35.739 0.000794539 0.000509493 -19.8527 0.270492
19 Pt 0 8.11598 35.739 0.000805002 -0.000368787 -19.8569 0.27052
20 Pt 2.81146 8.11598 35.739 0.00288326 -0.000520978 -19.8756 0.270643
21 Pt 5.62291 8.11598 35.739 0.00153669 -0.000688435 -19.8961 0.270783
22 Pt 8.43437 8.11598 35.739 -0.00157692 -0.000688336 -19.896 0.270783
23 Pt 11.2458 8.11598 35.739 -0.00274157 -0.000521124 -19.8757 0.270644
24 Pt 14.0573 8.11598 35.739 -0.000973991 -0.000369464 -19.8563 0.270513
25 Pt 1.40573 10.5508 35.739 0.00157578 -0.00103016 -19.8584 0.270529
26 Pt 4.21718 10.5508 35.739 0.00229561 -0.00154604 -19.8784 0.270662
27 Pt 7.02864 10.5508 35.739 -4.57537e-06 -0.00182394 -19.889 0.270735
28 Pt 9.8401 10.5508 35.739 -0.00218017 -0.00154642 -19.8784 0.270663
29 Pt 12.6516 10.5508 35.739 -0.00241362 -0.00102821 -19.858 0.270523
30 Pt 15.463 10.5508 35.739 0.000794399 -0.000788821 -19.8489 0.270465
31 Pt 0 12.9856 35.739 0.000448504 -0.000172186 -19.8458 0.270449
32 Pt 2.81146 12.9856 35.739 0.00210781 -0.000443405 -19.8595 0.270537
33 Pt 5.62291 12.9856 35.739 0.0011162 -0.00073826 -19.8747 0.270641
34 Pt 8.43437 12.9856 35.739 -0.00115639 -0.000738141 -19.8746 0.27064
35 Pt 11.2458 12.9856 35.739 -0.00196616 -0.000443576 -19.8597 0.270539
36 Pt 14.0573 12.9856 35.739 -0.000617419 -0.000172779 -19.8453 0.270442
37 Pt 0 1.62319 38.0345 7.27016e-06 1.20393e-05 -0.0574672 -0.0155715
38 Pt 2.81146 1.62319 38.0345 7.98242e-06 9.15934e-06 -0.0575331 -0.0155796
39 Pt 5.62291 1.62319 38.0345 3.94116e-06 1.15862e-05 -0.0575669 -0.0155843
40 Pt 8.43437 1.62319 38.0345 -3.90768e-06 1.16876e-05 -0.0575673 -0.0155844
41 Pt 11.2458 1.62319 38.0345 -8.97473e-06 1.02319e-05 -0.0575273 -0.015579
42 Pt 14.0573 1.62319 38.0345 -4.52221e-06 4.3893e-06 -0.0574991 -0.0155749
43 Pt 1.40573 4.05799 38.0345 8.63046e-06 -2.43491e-06 -0.0575126 -0.0155759
44 Pt 4.21718 4.05799 38.0345 7.59588e-06 1.84792e-06 -0.0575623 -0.0155827
45 Pt 7.02864 4.05799 38.0345 2.94528e-08 3.57256e-06 -0.0575842 -0.0155857
46 Pt 9.8401 4.05799 38.0345 -7.70383e-06 1.09043e-06 -0.0575635 -0.0155828
47 Pt 12.6516 4.05799 38.0345 -6.361e-06 4.86452e-08 -0.0575122 -0.0155758
48 Pt 15.463 4.05799 38.0345 -3.98234e-06 1.88274e-06 -0.0574671 -0.0155703
49 Pt 0 6.49278 38.0345 8.49463e-06 5.20972e-06 -0.0574875 -0.0155736
50 Pt 2.81146 6.49278 38.0345 1.05417e-05 1.79702e-06 -0.057561 -0.0155829
51 Pt 5.62291 6.49278 38.0345 5.26906e-06 3.76479e-06 -0.0576026 -0.0155887
52 Pt 8.43437 6.49278 38.0345 -5.23473e-06 3.86584e-06 -0.057603 -0.0155887
53 Pt 11.2458 6.49278 38.0345 -1.15331e-05 2.86698e-06 -0.0575553 -0.0155822
54 Pt 14.0573 6.49278 38.0345 -5.74667e-06 -2.44906e-06 -0.0575194 -0.0155771
55 Pt 1.40573 8.92757 38.0345 1.01446e-05 -2.03465e-06 -0.057534 -0.0155799
56 Pt 4.21718 8.92757 38.0345 9.23782e-06 -4.03264e-07 -0.0575866 -0.015587
57 Pt 7.02864 8.92757 38.0345 3.14652e-08 -2.03765e-08 -0.0576097 -0.0155903
58 Pt 9.8401 8.92757 38.0345 -9.34511e-06 -1.16512e-06 -0.0575877 -0.0155871
59 Pt 12.6516 8.92757 38.0345 -7.87795e-06 4.48444e-07 -0.0575336 -0.0155798
60 Pt 15.463 8.92757 38.0345 -3.98301e-06 3.5807e-06 -0.0574871 -0.015574
61 Pt 0 11.3624 38.0345 8.10148e-06 -4.19125e-06 -0.0574644 -0.01557
62 Pt 2.81146 11.3624 38.0345 9.77028e-06 -9.31827e-06 -0.0575327 -0.0155786
63 Pt 5.62291 11.3624 38.0345 4.90216e-06 -9.19796e-06 -0.0575689 -0.0155836
64 Pt 8.43437 11.3624 38.0345 -4.8676e-06 -9.09642e-06 -0.0575693 -0.0155837
65 Pt 11.2458 11.3624 38.0345 -1.07623e-05 -8.24578e-06 -0.057527 -0.0155779
66 Pt 14.0573 11.3624 38.0345 -5.35346e-06 -1.18436e-05 -0.0574963 -0.0155735
67 Pt 1.40573 13.7972 38.0345 7.95942e-06 -5.91976e-06 -0.0574731 -0.0155715
68 Pt 4.21718 13.7972 38.0345 6.93617e-06 -3.72258e-06 -0.0575167 -0.0155774
69 Pt 7.02864 13.7972 38.0345 2.97091e-08 -3.10807e-06 -0.0575354 -0.01558
70 Pt 9.8401 13.7972 38.0345 -7.04495e-06 -4.48071e-06 -0.0575179 -0.0155775
71 Pt 12.6516 13.7972 38.0345 -5.69069e-06 -3.43633e-06 -0.0574727 -0.0155714
72 Pt 15.463 13.7972 38.0345 -3.97958e-06 -6.3265e-07 -0.0574306 -0.0155663
73 Pt 0 0 40.3301 2.71119e-08 2.07977e-08 -0.000115011 0.000732203
74 Pt 2.81146 0 40.3301 1.74298e-08 1.68875e-08 -0.000115171 0.000732686
75 Pt 5.62291 0 40.3301 5.79756e-09 1.89319e-08 -0.000115221 0.000732857
76 Pt 8.43437 0 40.3301 -5.40869e-09 1.92397e-08 -0.000115223 0.000732861
77 Pt 11.2458 0 40.3301 -1.90005e-08 1.70124e-08 -0.000115162 0.000732663
78 Pt 14.0573 0 40.3301 -2.1327e-08 1.39244e-08 -0.000115088 0.000732419
79 Pt 1.40573 2.43479 40.3301 3.07e-08 5.52859e-08 -0.000115055 0.000732282
80 Pt 4.21718 2.43479 40.3301 9.72044e-09 5.69233e-08 -0.000115164 0.000732631
81 Pt 7.02864 2.43479 40.3301 4.97185e-10 5.88109e-08 -0.000115188 0.000732709
82 Pt 9.8401 2.43479 40.3301 -1.27948e-08 5.6917e-08 -0.00011516 0.000732618
83 Pt 12.6516 2.43479 40.3301 -5.77304e-09 5.5715e-08 -0.000115092 0.000732393
84 Pt 15.463 2.43479 40.3301 -2.69893e-08 5.88959e-08 -0.000114973 0.000732035
85 Pt 0 4.86959 40.3301 2.73749e-08 -2.40332e-08 -0.000115263 0.00073317
86 Pt 2.81146 4.86959 40.3301 1.7225e-08 -2.79083e-08 -0.000115424 0.000733656
87 Pt 5.62291 4.86959 40.3301 4.98596e-09 -2.69426e-08 -0.000115476 0.000733817
88 Pt 8.43437 4.86959 40.3301 -4.59875e-09 -2.66408e-08 -0.000115478 0.000733821
89 Pt 11.2458 4.86959 40.3301 -1.8743e-08 -2.7771e-08 -0.000115415 0.000733634
90 Pt 14.0573 4.86959 40.3301 -2.15429e-08 -3.09197e-08 -0.00011534 0.000733387
91 Pt 1.40573 7.30438 40.3301 3.22151e-08 1.02832e-08 -0.000115232 0.000732868
92 Pt 4.21718 7.30438 40.3301 9.708e-09 1.1194e-08 -0.00011534 0.000733198
93 Pt 7.02864 7.30438 40.3301 4.93777e-10 1.28833e-08 -0.000115363 0.000733254
94 Pt 9.8401 7.30438 40.3301 -1.27971e-08 1.11872e-08 -0.000115337 0.000733186
95 Pt 12.6516 7.30438 40.3301 -7.28972e-09 1.08356e-08 -0.000115269 0.000732979
96 Pt 15.463 7.30438 40.3301 -2.69779e-08 1.45348e-08 -0.00011515 0.00073262
97 Pt 0 9.73917 40.3301 2.82344e-08 3.7862e-08 -0.000114999 0.000732136
98 Pt 2.81146 9.73917 40.3301 1.88739e-08 3.33942e-08 -0.000115158 0.000732617
99 Pt 5.62291 9.73917 40.3301 5.75121e-09 3.5735e-08 -0.000115206 0.000732769
100 Pt 8.43437 9.73917 40.3301 -5.36997e-09 3.60484e-08 -0.000115208 0.000732773
101 Pt 11.2458 9.73917 40.3301 -2.03816e-08 3.35603e-08 -0.000115149 0.000732594
102 Pt 14.0573 9.73917 40.3301 -2.23979e-08 3.10336e-08 -0.000115076 0.000732352
103 Pt 1.40573 12.174 40.3301 3.22361e-08 -4.94948e-08 -0.000115297 0.000733263
104 Pt 4.21718 12.174 40.3301 1.11752e-08 -4.88255e-08 -0.000115403 0.000733604
105 Pt 7.02864 12.174 40.3301 5.00522e-10 -4.68071e-08 -0.000115425 0.000733678
106 Pt 9.8401 12.174 40.3301 -1.42563e-08 -4.88266e-08 -0.0001154 0.000733591
107 Pt 12.6516 12.174 40.3301 -7.32471e-09 -4.90441e-08 -0.000115334 0.000733374
108 Pt 15.463 12.174 40.3301 -2.69816e-08 -4.49798e-08 -0.000115216 0.000733017
109 Pt 1.40573 0.811598 1.1476 2.88817e-08 4.36296e-08 0.000115174 -0.000732873
110 Pt 4.21718 0.811598 1.1476 8.11358e-09 4.32127e-08 0.000115271 -0.000733184
111 Pt 7.02864 0.811598 1.1476 4.84862e-10 4.17292e-08 0.000115288 -0.000733245
112 Pt 9.8401 0.811598 1.1476 -1.11757e-08 4.32398e-08 0.000115267 -0.000733171
113 Pt 12.6516 0.811598 1.1476 -3.90036e-09 4.31755e-08 0.000115211 -0.000732984
114 Pt 15.463 0.811598 1.1476 -2.69658e-08 3.92089e-08 0.000115098 -0.000732645
115 Pt 0 3.24639 1.1476 2.63157e-08 -5.72523e-08 0.000114988 -0.000732033
116 Pt 2.81146 3.24639 1.1476 1.58767e-08 -5.21115e-08 0.000115139 -0.000732489
117 Pt 5.62291 3.24639 1.1476 5.07772e-09 -5.2681e-08 0.00011518 -0.000732634
118 Pt 8.43437 3.24639 1.1476 -4.7021e-09 -5.29906e-08 0.000115182 -0.000732638
119 Pt 11.2458 3.24639 1.1476 -1.74219e-08 -5.22762e-08 0.000115129 -0.000732466
120 Pt 14.0573 3.24639 1.1476 -2.05179e-08 -5.04158e-08 0.000115065 -0.00073225
121 Pt 1.40573 5.68118 1.1476 3.01427e-08 2.7668e-08 0.000115328 -0.000733252
122 Pt 4.21718 5.68118 1.1476 9.67412e-09 2.79201e-08 0.000115428 -0.000733575
123 Pt 7.02864 5.68118 1.1476 4.94256e-10 2.6909e-08 0.000115448 -0.000733646
124 Pt 9.8401 5.68118 1.1476 -1.28355e-08 2.79522e-08 0.000115425 -0.000733563
125 Pt 12.6516 5.68118 1.1476 -5.24679e-09 2.70912e-08 0.000115366 -0.000733363
126 Pt 15.463 5.68118 1.1476 -2.69512e-08 2.29258e-08 0.000115252 -0.00073302
127 Pt 0 8.11598 1.1476 2.62423e-08 3.88868e-09 0.000115224 -0.000733015
128 Pt 2.81146 8.11598 1.1476 1.59119e-08 8.34786e-09 0.000115377 -0.00073348
129 Pt 5.62291 8.11598 1.1476 5.27883e-09 6.66259e-09 0.000115423 -0.000733641
130 Pt 8.43437 8.11598 1.1476 -4.89726e-09 6.35652e-09 0.000115425 -0.000733645
131 Pt 11.2458 8.11598 1.1476 -1.74508e-08 8.22443e-09 0.000115368 -0.000733457
132 Pt 14.0573 8.11598 1.1476 -2.04423e-08 1.07926e-08 0.000115301 -0.000733232
133 Pt 1.40573 10.5508 1.1476 2.86802e-08 -6.03985e-08 0.000115038 -0.000732191
134 Pt 4.21718 10.5508 1.1476 7.96682e-09 -6.19121e-08 0.000115139 -0.000732513
135 Pt 7.02864 10.5508 1.1476 4.88281e-10 -6.41615e-08 0.000115159 -0.000732583
136 Pt 9.8401 10.5508 1.1476 -1.1114e-08 -6.18736e-08 0.000115135 -0.0007325
137 Pt 12.6516 10.5508 1.1476 -3.81354e-09 -6.09043e-08 0.000115076 -0.000732302
138 Pt 15.463 10.5508 1.1476 -2.69299e-08 -6.43567e-08 0.000114962 -0.000731959
139 Pt 0 12.9856 1.1476 2.55492e-08 -2.85813e-09 0.000115168 -0.000732748
140 Pt 2.81146 12.9856 1.1476 1.42865e-08 1.1755e-09 0.00011532 -0.000733203
141 Pt 5.62291 12.9856 1.1476 4.197e-09 -7.52461e-10 0.000115362 -0.00073335
142 Pt 8.43437 12.9856 1.1476 -3.80588e-09 -1.05185e-09 0.000115364 -0.000733354
143 Pt 11.2458 12.9856 1.1476 -1.58298e-08 1.04499e-09 0.000115311 -0.000733181
144 Pt 14.0573 12.9856 1.1476 -1.97611e-08 4.03283e-09 0.000115246 -0.000732964
145 Pt 0 1.62319 3.4432 6.80861e-06 -2.00191e-06 0.0574718 0.0155714
146 Pt 2.81146 1.62319 3.4432 7.06444e-06 2.59697e-06 0.0575308 0.0155787
147 Pt 5.62291 1.62319 3.4432 3.49408e-06 2.00278e-06 0.0575576 0.0155824
148 Pt 8.43437 1.62319 3.4432 -3.45858e-06 1.90123e-06 0.057558 0.0155825
149 Pt 11.2458 1.62319 3.4432 -8.05877e-06 1.52449e-06 0.0575251 0.015578
150 Pt 14.0573 1.62319 3.4432 -4.05922e-06 5.64888e-06 0.0575037 0.0155749
151 Pt 1.40573 4.05799 3.4432 7.82932e-06 4.43475e-07 0.0575322 0.0155796
152 Pt 4.21718 4.05799 3.4432 6.84223e-06 -8.32836e-07 0.0575725 0.015585
153 Pt 7.02864 4.05799 3.4432 2.81679e-08 -9.63151e-07 0.0575894 0.0155874
154 Pt 9.8401 4.05799 3.4432 -6.95116e-06 -7.37528e-08 0.0575736 0.0155852
155 Pt 12.6516 4.05799 3.4432 -5.55899e-06 -2.0405e-06 0.0575319 0.0155795
156 Pt 15.463 4.05799 3.4432 -3.98137e-06 -5.29151e-06 0.0574914 0.0155746
157 Pt 0 6.49278 3.4432 7.58187e-06 -8.40758e-07 0.0574883 0.0155733
158 Pt 2.81146 6.49278 3.4432 8.69972e-06 3.56733e-06 0.0575529 0.0155813
159 Pt 5.62291 6.49278 3.4432 4.36948e-06 2.71326e-06 0.0575854 0.0155859
160 Pt 8.43437 6.49278 3.4432 -4.33417e-06 2.61244e-06 0.0575858 0.015586
161 Pt 11.2458 6.49278 3.4432 -9.6938e-06 2.4947e-06 0.0575471 0.0155807
162 Pt 14.0573 6.49278 3.4432 -4.83193e-06 6.81375e-06 0.0575202 0.0155768
163 Pt 1.40573 8.92757 3.4432 7.76485e-06 3.08743e-06 0.0575282 0.0155784
164 Pt 4.21718 8.92757 3.4432 6.76182e-06 -8.76798e-08 0.0575709 0.0155842
165 Pt 7.02864 8.92757 3.4432 2.89971e-08 -1.24053e-06 0.0575892 0.0155868
166 Pt 9.8401 8.92757 3.4432 -6.87091e-06 6.72791e-07 0.0575721 0.0155843
167 Pt 12.6516 8.92757 3.4432 -5.49668e-06 6.00874e-07 0.0575279 0.0155783
168 Pt 15.463 8.92757 3.4432 -3.98059e-06 -1.76091e-06 0.0574862 0.0155732
169 Pt 0 11.3624 3.4432 6.77909e-06 -1.45126e-05 0.0574805 0.0155733
170 Pt 2.81146 11.3624 3.4432 6.98141e-06 -1.14849e-05 0.0575416 0.0155808
171 Pt 5.62291 11.3624 3.4432 3.44273e-06 -1.37663e-05 0.0575706 0.0155849
172 Pt 8.43437 11.3624 3.4432 -3.40785e-06 -1.38673e-05 0.0575709 0.0155849
173 Pt 11.2458 11.3624 3.4432 -7.97373e-06 -1.25541e-05 0.0575358 0.0155802
174 Pt 14.0573 11.3624 3.4432 -4.02976e-06 -6.85649e-06 0.0575124 0.0155768
175 Pt 1.40573 13.7972 3.4432 6.41079e-06 7.27539e-06 0.0574754 0.0155715
176 Pt 4.21718 13.7972 3.4432 5.31073e-06 4.42501e-06 0.0575117 0.0155764
177 Pt 7.02864 13.7972 3.4432 2.82267e-08 3.4816e-06 0.0575266 0.0155785
178 Pt 9.8401 13.7972 3.4432 -5.42027e-06 5.18545e-06 0.0575128 0.0155765
179 Pt 12.6516 13.7972 3.4432 -4.14057e-06 4.7964e-06 0.0574751 0.0155714
180 Pt 15.463 13.7972 3.4432 -3.98294e-06 2.31252e-06 0.0574366 0.0155669
181 Pt 0 0 5.7387 0.000224881 -0.000631235 19.8491 -0.270471
182 Pt 2.81146 0 5.7387 0.00163797 -0.000632165 19.8596 -0.270537
183 Pt 5.62291 0 5.7387 0.000869486 -0.000631747 19.8713 -0.270618
184 Pt 8.43437 0 5.7387 -0.000909628 -0.000631819 19.8713 -0.270617
185 Pt 11.2458 0 5.7387 -0.00149639 -0.0006319 19.8597 -0.270539
186 Pt 14.0573 0 5.7387 -0.000393916 -0.000630494 19.8485 -0.270464
187 Pt 1.40573 2.43479 5.7387 0.000963317 0.000651292 19.8557 -0.270509
188 Pt 4.21718 2.43479 5.7387 0.00163649 0.000967153 19.8698 -0.270602
189 Pt 7.02864 2.43479 5.7387 -4.57435e-06 0.00113557 19.8773 -0.270654
190 Pt 9.8401 2.43479 5.7387 -0.00152102 0.000967524 19.8698 -0.270603
191 Pt 12.6516 2.43479 5.7387 -0.00180114 0.000649329 19.8552 -0.270503
192 Pt 15.463 2.43479 5.7387 0.000794405 0.000500871 19.8488 -0.270464
193 Pt 0 4.86959 5.7387 0.00044881 0.000863956 19.8564 -0.270517
194 Pt 2.81146 4.86959 5.7387 0.00211798 0.0011355 19.8701 -0.270604
195 Pt 5.62291 4.86959 5.7387 0.00112626 0.00142865 19.8851 -0.270708
196 Pt 8.43437 4.86959 5.7387 -0.00116643 0.00142854 19.8851 -0.270707
197 Pt 11.2458 4.86959 5.7387 -0.00197631 0.00113562 19.8702 -0.270606
198 Pt 14.0573 4.86959 5.7387 -0.000617853 0.000864601 19.8559 -0.27051
199 Pt 1.40573 7.30438 5.7387 0.00136808 2.48363e-08 19.8655 -0.270577
200 Pt 4.21718 7.30438 5.7387 0.00207578 -8.44138e-07 19.8834 -0.270696
201 Pt 7.02864 7.30438 5.7387 -4.57215e-06 -2.73821e-07 19.8929 -0.270762
202 Pt 9.8401 7.30438 5.7387 -0.00196021 -4.78704e-07 19.8834 -0.270697
203 Pt 12.6516 7.30438 5.7387 -0.00220633 -1.94806e-06 19.8651 -0.270571
204 Pt 15.463 7.30438 5.7387 0.000794721 -1.09009e-06 19.8569 -0.270521
205 Pt 0 9.73917 5.7387 0.000449084 -0.000787885 19.8565 -0.270518
206 Pt 2.81146 9.73917 5.7387 0.00211853 -0.00106048 19.8702 -0.270605
207 Pt 5.62291 9.73917 5.7387 0.00112656 -0.00135189 19.8852 -0.270709
208 Pt 8.43437 9.73917 5.7387 -0.00116674 -0.00135203 19.8852 -0.270708
209 Pt 11.2458 9.73917 5.7387 -0.00197681 -0.00106042 19.8703 -0.270607
210 Pt 14.0573 9.73917 5.7387 -0.000618132 -0.0007871 19.856 -0.270511
211 Pt 1.40573 12.174 5.7387 0.000963904 -8.95425e-05 19.8565 -0.27052
212 Pt 4.21718 12.174 5.7387 0.00163707 -0.000406959 19.8706 -0.270613
213 Pt 7.02864 12.174 5.7387 -4.65164e-06 -0.000574105 19.8781 -0.270665
214 Pt 9.8401 12.174 5.7387 -0.00152164 -0.000406568 19.8707 -0.270614
215 Pt 12.6516 12.174 5.7387 -0.00180165 -9.16103e-05 19.856 -0.270514
216 Pt 15.463 12.174 5.7387 0.000794469 5.84648e-05 19.8497 -0.270475
217 K 7.02864 7.30438 20.3387 1.31688e-07 -5.92798e-07 14.6486 1
218 F 7.02864 7.30438 21.7387 3.34374e-07 3.94739e-08 -14.6486 -1
